
##########################################################################
#               Crystallographic Information Format file
#               Produced by PyCifRW module
#
#  This is a CIF file.  CIF has been adopted by the International
#  Union of Crystallography as the standard for data archiving and
#  transmission.
#
#  For information on this file format, follow the CIF links at
#  http://www.iucr.org
##########################################################################

data_global

_chemical_name_mineral                  Auricupride
loop_
  _publ_author_name
         'Megaw H D' 
_journal_name_full                      'Crystal Structures'
_journal_volume                         1973
_journal_year                           1973
_journal_page_first                     89
_journal_page_last                      90
_publ_section_title                     
;
 Copper-gold alloy, Cu3Au
;
_database_code_amcsd                    0011894
_chemical_formula_sum                   'Au Cu3'
_cell_length_a                          7.48
_cell_length_b                          7.48
_cell_length_c                          7.48
_cell_angle_alpha                       90
_cell_angle_beta                        90
_cell_angle_gamma                       90
_cell_volume                            52.314
_exptl_crystal_density_diffrn           12.303
_symmetry_space_group_name_H-M          'P m 3 m'
loop_
  _space_group_symop_operation_xyz
         'x, y, z' 
loop_
  _atom_site_label
  _atom_site_fract_x
  _atom_site_fract_y
  _atom_site_fract_z
  _atom_site_type_symbol
  _atom_site_occupancy
         Au0       0.0       0.0       0.0       Au        1.0       
         Cu1       0.24999999999999997           0.24999999999999997           0.0      Cu
          1.0       
         Cu2       0.24999999999999997           0.0       0.25      Cu        1.0      
         Cu3       3.0814879110195774e-33        0.24999999999999997           0.25     Cu
          1.0       
         Au4       0.0       0.0       0.5       Au        1.0       
         Cu5       0.25      0.24999999999999997           0.5       Cu        1.0      
         Cu6       0.25      0.0       0.75      Cu        1.0       
         Cu7       0.0       0.25      0.75      Cu        1.0       
         Au8       6.162975822039155e-33         0.49999999999999994           0.0      Au
          1.0       
         Cu9       0.25      0.7499999999999999  0.0       Cu        1.0       
         Cu10      0.24999999999999997           0.49999999999999994           0.25     Cu
          1.0       
         Cu11      9.244463733058732e-33         0.7499999999999999  0.25      Cu
          1.0       
         Au12      6.162975822039155e-33         0.49999999999999994           0.5      Au
          1.0       
         Cu13      0.24999999999999997           0.7499999999999999  0.5       Cu
          1.0       
         Cu14      0.24999999999999994           0.5       0.75      Cu        1.0      
         Cu15      1.8488927466117464e-32        0.7499999999999999  0.75      Cu
          1.0       
         Au16      0.49999999999999994           0.0       0.0       Au        1.0      
         Cu17      0.7499999999999999  0.24999999999999997           0.0       Cu
          1.0       
         Cu18      0.7499999999999999  0.0       0.25      Cu        1.0       
         Cu19      0.5       0.24999999999999997           0.25      Cu        1.0      
         Au20      0.49999999999999994           0.0       0.5       Au        1.0      
         Cu21      0.75      0.24999999999999997           0.5       Cu        1.0      
         Cu22      0.75      0.0       0.75      Cu        1.0       
         Cu23      0.5000000000000001  0.25      0.75      Cu        1.0       
         Au24      0.49999999999999994           0.49999999999999994           0.0      Au
          1.0       
         Cu25      0.75      0.7499999999999999  0.0       Cu        1.0       
         Cu26      0.75      0.49999999999999994           0.25      Cu        1.0      
         Cu27      0.5000000000000001  0.7499999999999999  0.25      Cu        1.0      
         Au28      0.5000000000000001  0.49999999999999994           0.5       Au
          1.0       
         Cu29      0.75      0.7499999999999999  0.5       Cu        1.0       
         Cu30      0.75      0.5       0.75      Cu        1.0       
         Cu31      0.5000000000000001  0.7499999999999999  0.75      Cu        1.0
loop_
  _atom_site_moment_label
  _atom_site_moment_crystalaxis_x
  _atom_site_moment_crystalaxis_y
  _atom_site_moment_crystalaxis_z
  _atom_site_moment_symmform
         Au0       0.0       -0.0      0.0       'mx, my, mz'        
         Cu1       -0.04398395721925134          0.014625668449197817 
          0.2633422459893048  'mx, my, mz'        
         Cu2       -0.22930481283422458          -0.0024331550802139256 
          0.1375133689839572  'mx, my, mz'        
         Cu3       -0.16938502673796788          0.09526737967914434 
          0.1836363636363636  'mx, my, mz'        
         Au4       0.0       0.0       0.0       'mx, my, mz'        
         Cu5       0.09219251336898396           -0.0004010695187165371 
          -0.25098930481283416          'mx, my, mz'        
         Cu6       0.15085561497326203           0.11104278074866306 
          0.19080213903743312           'mx, my, mz'        
         Cu7       0.10157754010695186           -0.15959893048128343 
          0.18895721925133688           'mx, my, mz'        
         Au8       0.0       0.0       0.0       'mx, my, mz'        
         Cu9       0.24270053475935824           0.07628342245989302 
          0.08227272727272725           'mx, my, mz'        
         Cu10      0.1645454545454545  -0.0649197860962567           0.2005080213903743 'mx, my, mz'       
         Cu11      0.1152139037433155  -0.24005347593582885 
          0.024171122994652402          'mx, my, mz'        
         Au12      -0.0      0.0       0.0       'mx, my, mz'        
         Cu13      0.14443850267379676           -0.08489304812834221 
          -0.20839572192513364          'mx, my, mz'        
         Cu14      0.2270320855614973  -0.1407219251336898 
          -0.012085561497326201         'mx, my, mz'        
         Cu15      0.23296791443850262           -0.13114973262032084 
          -0.0029679144385026733        'mx, my, mz'        
         Au16      0.0       0.0       0.0       'mx, my, mz'        
         Cu17      -0.1497860962566845           -0.21625668449197857 
          0.047834224598930476          'mx, my, mz'        
         Cu18      0.24879679144385022           0.09783422459893047 
          0.004866310160427807          'mx, my, mz'        
         Cu19      0.08481283422459893           -0.2527272727272727 
          0.02066844919786096           'mx, my, mz'        
         Au20      0.0       0.0       0.0       'mx, my, mz'        
         Cu21      0.03620320855614971           0.26318181818181813 
          -0.03026737967914438          'mx, my, mz'        
         Cu22      0.20893048128342243           -0.16427807486631013 
          0.029117647058823522          'mx, my, mz'        
         Cu23      0.05574866310160427           -0.20636363636363636 
          0.1606417112299465  'mx, my, mz'        
         Au24      0.0       0.0       0.0       'mx, my, mz'        
         Cu25      0.17037433155080212           0.1695989304812834 
          -0.11705882352941176          'mx, my, mz'        
         Cu26      -0.06494652406417113          0.2405080213903743 
          -0.09713903743315506          'mx, my, mz'        
         Cu27      -0.009037433155080227         -0.012754010695187208 
          0.2669251336898395  'mx, my, mz'        
         Au28      0.0       0.0       0.0       'mx, my, mz'        
         Cu29      0.21524064171122992           0.06435828877005349           -0.145   'mx, my, mz'       
         Cu30      -0.06582887700534759          0.07291443850267375 
          0.24868983957219248           'mx, my, mz'        
         Cu31      -0.24077540106951867          -0.09545454545454542 
          -0.0663368983957219           'mx, my, mz' 